data_MIL-47

_audit_creation_method RASPA-1.0
_audit_creation_date 2021-6-1
_audit_author_name 'Krishnendu Mukherjee'

_citation_author_name        'K. Barthelet, J. Marrot, D. Riou, and G. Ferey'
_citation_title              'A breathing hybrid organic-inorganic solid with very large pores and high magnetic characteristics'
_citation_journal_abbrev     'Ang. Chem. Int. Ed.'
_citation_journal_volume     41
_citation_page_first         281
_citation_page_last          284
_citation_year               2002

_cell_length_a    6.8179
_cell_length_b    16.143
_cell_length_c    13.939
_cell_angle_alpha 90
_cell_angle_beta  90
_cell_angle_gamma 90
_cell_volume      24546.3

_symmetry_cell_setting          orthorhombic
_symmetry_space_group_name_Hall '-P 2ac 2n'
_symmetry_space_group_name_H-M  'P n m a'
_symmetry_Int_Tables_number     62

loop_
_symmetry_equiv_pos_as_xyz
 'x,y,z'
 '-x+1/2,-y,z+1/2'
 '-x,y+1/2,-z'
 'x+1/2,-y+1/2,-z+1/2'
 '-x,-y,-z'
 'x+1/2,y,-z+1/2'
 'x,-y+1/2,z'
 '-x+1/2,y+1/2,z+1/2'

loop_
_atom_site_label
_atom_site_type_symbol
_atom_site_fract_x
_atom_site_fract_y
_atom_site_fract_z
_atom_site_charge
V        V      0.200200000000     0.250000000000     0.739160000000     0     
O1       O      0.975100000000     0.250000000000     0.691600000000     0     
O2       O      0.311800000000     0.163200000000     0.655500000000     0     
O3       O      0.141500000000     0.162600000000     0.833500000000     0     
C1       C      0.322500000000     0.032900000000     0.526100000000     0     
H1       H      0.201500000000     0.055400000000     0.542500000000     0     
C2       C      0.667500000000     0.032300000000     0.536900000000     0     
H2       H      0.783000000000     0.054800000000     0.561100000000     0     
C3       C      0.491100000000     0.064900000000     0.565000000000     0     
C4       C      0.478100000000     0.136600000000     0.633300000000     0     


